/*--------------------------------*- C++ -*----------------------------------*\
  =========                 |
  \\      /  F ield         | OpenFOAM: The Open Source CFD Toolbox
   \\    /   O peration     | Website:  https://openfoam.org
    \\  /    A nd           | Version:  10
     \\/     M anipulation  |
\*---------------------------------------------------------------------------*/
FoamFile
{
  format ascii;
  class volScalarField;
  object k;
}
// * * * * * * * * * * * * * * * * * * * * * * * * * * * * * * * * * * * * * //

dimensions [0 2 -2 0 0 0 0];

internalField uniform 0;

boundaryField
{
  inlets
  {
    type fixedValue;
    value uniform 2e-05;
  }

  outlets
  {
    type inletOutlet;
    inletValue uniform 0;
    value uniform 0;
  }

  walls
  {
    type fixedValue;
    value uniform 0;
  }
}

// ************************************************************************* //
